                         Program Version 4.2.0 -  RELEASE  -
|  1> # Test redundant internal optimization for: agonist1.mol2
|  2> #
|  3> ! opt HF-3c conv
|  4> ! PrintBasis
|  5> %output
|  6>  print[P_MOs]1
|  7>  end #output
|  8> * xyz 0 1
|  9>   N1      -0.32410595   -1.56409109   -0.68484147
| 10>   C2       0.51619871   -0.92255889    0.39333767
| 11>   C3      -0.05336965    0.61267627    0.47845401
| 12>   C4       2.00797538   -0.88688004    0.06270463
| 13>   O5       2.69830624   -0.28319649    1.12419210
| 14>   O6      -1.06325203    0.72557233   -0.23968885
| 15>   O7       0.57717009    1.36324743    1.19188943
| 16>   H8      -1.07558906   -0.76741519   -0.92753767
| 17>   H9       0.22083058   -1.78317718   -1.51827830
| 18>   H10     -0.79645065   -2.40454606   -0.35645507
| 19>   H11      0.33374238   -1.39226605    1.37808774
| 20>   H12      2.21663728   -0.32075603   -0.86665241
| 21>   H13      2.45756376   -1.89548276   -0.00609690
| 22>   H14      2.21850710    0.55924712    1.38846343
| 23>
| 24> *
| 25> %elprop
| 26> Quadrupole True
| 27> end
| 28> %maxcore 6000
| 29> %pal
| 30> nprocs 10
| 31> endd                         ****END OF INPUT****
 Total Charge           Charge          ....    0
 Multiplicity           Mult            ....    1
 Number of Electrons    NEL             ....   56
Dispersion correction           -0.055338059
FINAL SINGLE POINT ENERGY      -394.057441352112
Dispersion correction            ... done
Dispersion correction           -0.055148150
FINAL SINGLE POINT ENERGY      -394.070706922341
Dispersion correction            ... done
Dispersion correction           -0.055122439
FINAL SINGLE POINT ENERGY      -394.076707510061
Dispersion correction            ... done
FINAL SINGLE POINT ENERGY      -394.091020601360
FINAL SINGLE POINT ENERGY      -394.051782491075
FINAL SINGLE POINT ENERGY      -394.100496376057
FINAL SINGLE POINT ENERGY      -394.100298442221
FINAL SINGLE POINT ENERGY      -394.111307046810
FINAL SINGLE POINT ENERGY      -394.117748766353
FINAL SINGLE POINT ENERGY      -394.120130730075
FINAL SINGLE POINT ENERGY      -394.124421608130
FINAL SINGLE POINT ENERGY      -394.124449709909
FINAL SINGLE POINT ENERGY      -394.124464297024
FINAL SINGLE POINT ENERGY      -394.124475967898
FINAL SINGLE POINT ENERGY      -394.124480566892
FINAL SINGLE POINT ENERGY      -394.124484243220
FINAL SINGLE POINT ENERGY      -394.124486589640
Dispersion correction            ... done
Dispersion correction           -0.052881099
FINAL SINGLE POINT ENERGY      -394.124488073336
Dispersion correction            ... done
Dispersion correction           -0.052881945
FINAL SINGLE POINT ENERGY      -394.124488662715
Dispersion correction            ... done
                    ***********************HURRAY********************

CARTESIAN COORDINATES (ANGSTROEM)
---------------------------------
  N     -0.236716   -1.681870   -0.699976
  C      0.502217   -0.959124    0.334493
  C     -0.030079    0.526054    0.378406
  C      2.063649   -0.940405    0.157451
  O      2.707127   -0.312384    1.251557
  O     -1.255262    0.676463   -0.185447
  O      0.588574    1.440391    0.864855
  H     -1.506343   -0.194435   -0.577654
  H      0.197826   -1.620728   -1.613334
  H     -0.423904   -2.648221   -0.463835
  H      0.277939   -1.397954    1.308953
  H      2.301986   -0.458937   -0.799458
  H      2.422777   -1.972650    0.106016
  H      2.324374    0.584174    1.355552

 Multiplicity           Mult            ....    1
 Number of Electrons    NEL             ....   56
 Basis Dimension        Dim             ....   42

ORBITAL ENERGIES
----------------

  NO   OCC          E(Eh)            E(eV)
   0   2.0000     -20.371546      -554.3379
   1   2.0000     -20.346184      -553.6478
   2   2.0000     -20.301363      -552.4282
   3   2.0000     -15.411807      -419.3766
   4   2.0000     -11.368140      -309.3428
   5   2.0000     -11.246066      -306.0210
   6   2.0000     -11.241631      -305.9003
   7   2.0000      -1.454083       -39.5676
   8   2.0000      -1.358851       -36.9762
   9   2.0000      -1.335037       -36.3282
  10   2.0000      -1.216034       -33.0900
  11   2.0000      -1.006047       -27.3759
  12   2.0000      -0.893466       -24.3124
  13   2.0000      -0.788069       -21.4445
  14   2.0000      -0.748048       -20.3554
  15   2.0000      -0.685149       -18.6439
  16   2.0000      -0.669101       -18.2072
  17   2.0000      -0.656342       -17.8600
  18   2.0000      -0.622117       -16.9287
  19   2.0000      -0.601607       -16.3706
  20   2.0000      -0.585617       -15.9354
  21   2.0000      -0.552401       -15.0316
  22   2.0000      -0.534202       -14.5364
  23   2.0000      -0.492303       -13.3962
  24   2.0000      -0.465241       -12.6599
  25   2.0000      -0.445873       -12.1328
  26   2.0000      -0.422919       -11.5082
  27   2.0000      -0.384896       -10.4735
  28   0.0000       0.209860         5.7106
  29   0.0000       0.452814        12.3217
  30   0.0000       0.491810        13.3828
  31   0.0000       0.523597        14.2478
  32   0.0000       0.545764        14.8510

------------------
MOLECULAR ORBITALS
------------------
                      0         1         2         3         4         5
                 -20.37155 -20.34618 -20.30136 -15.41181 -11.36814 -11.24607
                   2.00000   2.00000   2.00000   2.00000   2.00000   2.00000
                  --------  --------  --------  --------  --------  --------
  0N   1s        -0.000058 -0.000012  0.000006 -0.989035  0.000048  0.000978
  0N   2s         0.000547 -0.000129  0.000088 -0.058206 -0.000054 -0.008243
  0N   1pz       -0.000102 -0.000080  0.000013 -0.000305 -0.000004 -0.004749
  0N   1px       -0.000831 -0.000126 -0.000147 -0.005535 -0.000157 -0.003133
  0N   1py        0.000724  0.000287  0.000034  0.002848 -0.000107 -0.003360
  1C   1s        -0.000028  0.000013  0.000000 -0.000572 -0.008338  0.954191
  1C   2s         0.000110  0.000435  0.000051  0.009757 -0.008984  0.061105
  1C   1pz       -0.000508 -0.000462  0.000533 -0.006439 -0.000234  0.000639
  1C   1px       -0.000814 -0.001082  0.000044 -0.004355  0.002518  0.001445
  1C   1py       -0.000217 -0.000185  0.000301 -0.004939 -0.007139  0.000207
  2C   1s         0.000777 -0.000765 -0.000038 -0.000016  0.989403  0.009301
  2C   2s        -0.010302  0.015951  0.000358  0.000020  0.052707 -0.008765
  2C   1pz        0.004441  0.006114  0.000086  0.000228  0.000315  0.000219
  2C   1px        0.009722  0.007707  0.000381  0.000320  0.000485 -0.002370
  2C   1py       -0.001342  0.011663  0.000232 -0.000229  0.000566  0.007277
  3C   1s         0.000016  0.000001  0.000782 -0.000011 -0.001150 -0.256100
  3C   2s         0.000060  0.000113 -0.009096  0.000153 -0.000335 -0.024447
  3C   1pz       -0.000010  0.000063 -0.007169  0.000312 -0.000045 -0.000578
  3C   1px        0.000020 -0.000037 -0.004316 -0.000075  0.000536  0.007571
  3C   1py       -0.000306 -0.000122 -0.003916  0.000200 -0.000619  0.000427
  4O   1s         0.000276 -0.005869  0.990217 -0.000016 -0.000045 -0.000208
  4O   2s         0.000114 -0.001151  0.048912 -0.000022  0.000428  0.001975
  4O   1pz       -0.000017 -0.000098 -0.004413  0.000024  0.000000 -0.001030
  4O   1px        0.000000  0.000270 -0.005500 -0.000150 -0.000081 -0.000620
  4O   1py        0.000039 -0.000688  0.003021 -0.000026  0.000240 -0.000676
  5O   1s         0.990131  0.001361 -0.000280  0.000133  0.000806 -0.000009
  5O   2s         0.050106  0.000102  0.000053 -0.000947 -0.008147  0.000144
  5O   1pz        0.000692 -0.000275  0.000034  0.000319 -0.002412 -0.000173
  5O   1px        0.005256 -0.000095  0.000032  0.000451 -0.004554 -0.000081
  5O   1py       -0.006329 -0.001185 -0.000019  0.000661 -0.000621 -0.000474
  6O   1s         0.001306 -0.990251 -0.006057 -0.000017  0.000567  0.000025
  6O   2s        -0.000055 -0.050438  0.000210  0.000033 -0.010704 -0.000395
  6O   1pz       -0.000422  0.004648  0.000326  0.000007  0.001601  0.000049
  6O   1px       -0.001131  0.005779  0.000937  0.000007  0.002177  0.000404
  6O   1py        0.000615  0.008940 -0.000163 -0.000073  0.002723 -0.000388
  7H   1s        -0.011905  0.000299  0.000019  0.002908 -0.002131 -0.000843
  8H   1s         0.000112 -0.000027 -0.000148  0.013047 -0.000048 -0.001006
  9H   1s         0.000102  0.000070  0.000007  0.013025 -0.000157 -0.001121
 10H   1s         0.000116 -0.000189 -0.000045 -0.000209 -0.000570 -0.011940
 11H   1s         0.000053 -0.000091  0.000166 -0.000194 -0.000183  0.002789
 12H   1s        -0.000119 -0.000044  0.000441 -0.000002 -0.000410  0.002811
 13H   1s        -0.000180  0.002142 -0.012251  0.000103 -0.000986  0.000230
                      6         7         8         9        10        11
                 -11.24163  -1.45408  -1.35885  -1.33504  -1.21603  -1.00605
                   2.00000   2.00000   2.00000   2.00000   2.00000   2.00000
                  --------  --------  --------  --------  --------  --------
  0N   1s         0.000314 -0.011386  0.009214  0.014972  0.185496  0.098215
  0N   2s        -0.002416  0.033927 -0.030343 -0.048665 -0.623639 -0.352475
  0N   1pz       -0.001635  0.005601 -0.002457 -0.006259 -0.034641  0.085060
  0N   1px       -0.000780  0.005949 -0.001829 -0.009273 -0.086033  0.017194
  0N   1py       -0.000980  0.005091 -0.001202 -0.002337  0.005574  0.096029
  1C   1s         0.257609 -0.024008 -0.000778  0.025903  0.112595 -0.130290
  1C   2s         0.006858  0.066796  0.008228 -0.066163 -0.300209  0.380906
  1C   1pz        0.001078 -0.004043 -0.000270  0.006862  0.076229  0.065689
  1C   1px       -0.007971 -0.013705  0.003708 -0.026117  0.051867  0.099794
  1C   1py        0.000110  0.028040  0.003387  0.003951  0.049619  0.080611
  2C   1s         0.003899 -0.135616 -0.021570 -0.014538  0.008688 -0.048362
  2C   2s        -0.002890  0.303525  0.039244  0.031222 -0.028107  0.151753
  2C   1pz        0.000025  0.015130  0.106386  0.030068 -0.002884 -0.015377
  2C   1px       -0.001240 -0.002756  0.176953  0.042011 -0.036951  0.036368
  2C   1py        0.002283  0.087652  0.100339  0.049526  0.063185 -0.151049
  3C   1s         0.954763 -0.008410 -0.020346  0.085793  0.021076 -0.112257
  3C   2s         0.055747  0.020105  0.051274 -0.217712 -0.061450  0.331778
  3C   1pz       -0.001235  0.004487  0.019475 -0.083111  0.016540 -0.048121
  3C   1px        0.001622 -0.003899  0.009369 -0.037002  0.053506 -0.110774
  3C   1py       -0.000831  0.002044  0.009840 -0.050980  0.013045 -0.028914
  4O   1s         0.000864 -0.011536 -0.048841  0.201433 -0.034558  0.059291
  4O   2s        -0.007648  0.041885  0.181913 -0.751967  0.133734 -0.243973
  4O   1pz        0.004102 -0.005425 -0.019047  0.077503 -0.003374 -0.050620
  4O   1px        0.001877 -0.007834 -0.025173  0.090693 -0.007208 -0.024895
  4O   1py        0.003097  0.003764  0.011478 -0.033097  0.013726 -0.073460
  5O   1s         0.000015 -0.134587  0.161145  0.026769 -0.035640  0.020652
  5O   2s        -0.000077  0.496745 -0.599274 -0.099057  0.140058 -0.085861
  5O   1pz       -0.000181  0.022592 -0.001024  0.002405  0.002501  0.020028
  5O   1px       -0.000120  0.086189 -0.054292 -0.005459  0.004306  0.035013
  5O   1py       -0.000092 -0.066896  0.086500  0.016541 -0.002506 -0.004322
  6O   1s         0.000008 -0.141091 -0.139954 -0.049844 -0.009330  0.034276
  6O   2s        -0.000003  0.503214  0.503446  0.180683  0.034984 -0.138127
  6O   1pz        0.000096 -0.059437 -0.044540 -0.017634 -0.002361 -0.001869
  6O   1px        0.000007 -0.070596 -0.047208 -0.023333 -0.006449  0.010441
  6O   1py       -0.000136 -0.116162 -0.097794 -0.032499  0.000499 -0.030728
  7H   1s        -0.000404  0.067394 -0.096759 -0.017571  0.013800 -0.037090
  8H   1s        -0.000748  0.004022 -0.004848 -0.008105 -0.127343 -0.120522
  9H   1s        -0.000256  0.004046 -0.003907 -0.007163 -0.125826 -0.126086
 10H   1s        -0.003756  0.006775  0.000590 -0.011146 -0.055174  0.110100
 11H   1s        -0.012162  0.002479  0.007713 -0.030967 -0.011931  0.091100
 12H   1s        -0.012288  0.001990  0.005791 -0.030328 -0.012397  0.088793
 13H   1s        -0.002258  0.007949  0.031592 -0.122128  0.028841 -0.084480
                     12        13        14        15        16        17
                  -0.89347  -0.78807  -0.74805  -0.68515  -0.66910  -0.65634
                   2.00000   2.00000   2.00000   2.00000   2.00000   2.00000
                  --------  --------  --------  --------  --------  --------
  0N   1s        -0.019099  0.014799  0.007239 -0.015383 -0.009152 -0.002307
  0N   2s         0.071617 -0.054538 -0.032718  0.071962  0.030505  0.004403
  0N   1pz       -0.093808  0.117771  0.233249  0.010021  0.187572  0.354496
  0N   1px        0.020084 -0.016714 -0.022729 -0.283322  0.018989 -0.137484
  0N   1py       -0.083245  0.035372 -0.195894 -0.213237  0.358235 -0.152492
  1C   1s         0.074588 -0.049696 -0.030594  0.047930 -0.005042  0.008585
  1C   2s        -0.221983  0.150956  0.117556 -0.161991  0.018352 -0.031892
  1C   1pz       -0.071223  0.080159  0.200308  0.165755 -0.192574 -0.086776
  1C   1px        0.180040  0.011855 -0.019699 -0.142697 -0.277412 -0.104922
  1C   1py       -0.096351 -0.127549 -0.261290  0.171105 -0.098065 -0.028035
  2C   1s         0.073235  0.119332  0.020790 -0.050875  0.015578  0.004133
  2C   2s        -0.233204 -0.372377 -0.068589  0.157601 -0.045792 -0.006662
  2C   1pz        0.008086  0.097340  0.054973  0.125280 -0.082791 -0.075974
  2C   1px       -0.022170  0.169257 -0.182846  0.109987 -0.111473 -0.038001
  2C   1py        0.190737 -0.038341  0.176831 -0.159657 -0.034982 -0.021755
  3C   1s        -0.143962  0.018845  0.005704 -0.020241  0.004838 -0.014506
  3C   2s         0.444224 -0.060538 -0.016734  0.074738  0.001614  0.056281
  3C   1pz       -0.094448  0.037790  0.127739  0.089910  0.007304 -0.314316
  3C   1px        0.050247 -0.082541  0.007950  0.233115  0.228603  0.056021
  3C   1py       -0.064171 -0.014661 -0.131327 -0.005483 -0.132562  0.184270
  4O   1s         0.043560  0.004239 -0.011661  0.001837 -0.028922  0.018701
  4O   2s        -0.187004 -0.020858  0.053489 -0.013385  0.138131 -0.088680
  4O   1pz       -0.116904  0.047834  0.033067 -0.153877 -0.039504 -0.084814
  4O   1px       -0.003995 -0.036317  0.008328  0.043310  0.197998  0.055577
  4O   1py       -0.130285  0.046284 -0.110967 -0.246708 -0.179979  0.311642
  5O   1s        -0.037177 -0.039653 -0.018602  0.026551  0.035900  0.005264
  5O   2s         0.163710  0.195018  0.078753 -0.120067 -0.188132 -0.030700
  5O   1pz       -0.052009 -0.229703  0.155408 -0.006756 -0.009839  0.014601
  5O   1px       -0.089959 -0.382880  0.051590 -0.071741  0.120971  0.076984
  5O   1py        0.030510 -0.186029  0.195914 -0.260047 -0.174244 -0.004380
  6O   1s        -0.036916 -0.068410 -0.004458  0.023373 -0.045585 -0.010715
  6O   2s         0.152966  0.315388  0.012813 -0.116697  0.237528  0.064395
  6O   1pz       -0.004357  0.117811  0.013043  0.035775  0.030613 -0.000610
  6O   1px       -0.009050  0.189122 -0.159094  0.005714 -0.017998  0.083363
  6O   1py        0.063412  0.067666  0.097253 -0.211391  0.238656  0.068852
  7H   1s         0.052512  0.265250 -0.134094  0.135280  0.042661 -0.027484
  8H   1s         0.070278 -0.086041 -0.167418 -0.071622 -0.081494 -0.276667
  9H   1s         0.047893 -0.019231  0.144184  0.213698 -0.195245  0.190924
 10H   1s        -0.103299  0.125634  0.212210  0.002939 -0.044685 -0.047971
 11H   1s         0.171312 -0.055141 -0.111236  0.006501 -0.014046  0.258346
 12H   1s         0.182357 -0.029108  0.062802  0.073609  0.114878 -0.063154
 13H   1s        -0.107121  0.054682 -0.056559 -0.170211 -0.112478  0.149919
                     18        19        20        21        22        23
                  -0.62212  -0.60161  -0.58562  -0.55240  -0.53420  -0.49230
                   2.00000   2.00000   2.00000   2.00000   2.00000   2.00000
                  --------  --------  --------  --------  --------  --------
  0N   1s        -0.001833 -0.005596  0.011764  0.009140 -0.000565 -0.037039
  0N   2s         0.006356  0.013608 -0.050695 -0.034460 -0.006836  0.178130
  0N   1pz        0.182837  0.131531 -0.001745 -0.281641  0.042210  0.031110
  0N   1px       -0.040126  0.112179 -0.014922 -0.035509  0.085356 -0.270479
  0N   1py       -0.047222  0.159847 -0.136272  0.029125 -0.052108  0.295188
  1C   1s        -0.006258 -0.005840  0.021443 -0.003074 -0.006851  0.030422
  1C   2s         0.022279  0.030342 -0.088063  0.027482  0.009104 -0.109888
  1C   1pz       -0.120783 -0.119935 -0.024088  0.409141 -0.071115  0.023927
  1C   1px        0.050579 -0.119727  0.067083 -0.163811 -0.110340 -0.170555
  1C   1py       -0.014518 -0.113883  0.033490 -0.073029  0.146558 -0.066575
  2C   1s        -0.013065 -0.022693 -0.031661  0.003465  0.009022  0.003257
  2C   2s         0.029803  0.039170  0.111065 -0.013267  0.013547 -0.024052
  2C   1pz       -0.313509  0.268993 -0.032075 -0.136111 -0.034347  0.020620
  2C   1px        0.261580  0.184639  0.012971  0.066170  0.109160 -0.005327
  2C   1py        0.154120  0.195616 -0.069065  0.048819 -0.244660  0.074605
  3C   1s         0.007557  0.014605  0.002487  0.014294  0.013447 -0.025636
  3C   2s        -0.029349 -0.042637 -0.009255 -0.043816 -0.043920  0.091591
  3C   1pz        0.148821 -0.144876 -0.130934 -0.205347  0.004455  0.160969
  3C   1px       -0.049423  0.087524 -0.062647  0.203272  0.130457  0.136336
  3C   1py       -0.008803 -0.052346 -0.489014 -0.033454 -0.105841 -0.102921
  4O   1s        -0.010606 -0.021297 -0.010839 -0.002919 -0.011145  0.063544
  4O   2s         0.050136  0.114178  0.070497  0.019777  0.055854 -0.348542
  4O   1pz        0.010191  0.038476  0.409472 -0.065637  0.000911 -0.206463
  4O   1px       -0.023211  0.193838  0.050144  0.254056  0.177614 -0.558749
  4O   1py       -0.153939  0.071968  0.200820  0.168854 -0.114431  0.233785
  5O   1s        -0.001809 -0.023578  0.021978 -0.001337 -0.060309 -0.005556
  5O   2s         0.015780  0.141814 -0.112937  0.006538  0.328722  0.032188
  5O   1pz       -0.459645  0.024481 -0.024705 -0.308792  0.049321 -0.028862
  5O   1px        0.128227 -0.344227  0.129341  0.131932 -0.137306  0.059170
  5O   1py        0.115443  0.121342 -0.203606  0.115535  0.534948  0.168725
  6O   1s         0.027047  0.070230  0.009057  0.001470 -0.021542  0.012808
  6O   2s        -0.154080 -0.405277 -0.039779 -0.009706  0.130748 -0.070446
  6O   1pz       -0.383274 -0.118285  0.008972 -0.137408  0.184155  0.028462
  6O   1px        0.028854 -0.306173  0.090035  0.030567  0.496945  0.084915
  6O   1py       -0.083297 -0.438480 -0.113177  0.046218 -0.079473 -0.170631
  7H   1s         0.042012  0.053632  0.048786  0.000525 -0.237568 -0.034846
  8H   1s        -0.145058 -0.040072 -0.030565  0.206673 -0.014666 -0.022188
  9H   1s         0.079530 -0.108050  0.087866 -0.085119  0.029177 -0.109535
 10H   1s        -0.071949 -0.015857 -0.072099  0.350583 -0.075211  0.006707
 11H   1s        -0.109204  0.065221 -0.082883  0.141860 -0.041364 -0.092708
 12H   1s        -0.023798  0.035495  0.330604  0.062156  0.090814  0.187172
 13H   1s        -0.090884 -0.001170  0.204145  0.050365 -0.034187  0.196738
                     24        25        26        27        28        29
                  -0.46524  -0.44587  -0.42292  -0.38490   0.20986   0.45281
                   2.00000   2.00000   2.00000   2.00000   0.00000   0.00000
                  --------  --------  --------  --------  --------  --------
  0N   1s        -0.031029 -0.003641 -0.001733  0.032744  0.013679 -0.060301
  0N   2s         0.168601  0.020351  0.018384 -0.182758 -0.084655  0.432094
  0N   1pz       -0.058931 -0.048193 -0.037626  0.032114 -0.054274  0.189909
  0N   1px       -0.550534 -0.094398 -0.171355  0.474236 -0.043557  0.302704
  0N   1py        0.194195  0.037203 -0.021798 -0.262204 -0.019999  0.129394
  1C   1s        -0.008071 -0.001330 -0.030981 -0.003384 -0.006009 -0.031333
  1C   2s         0.042988  0.009767  0.133144  0.009465  0.036318  0.226244
  1C   1pz        0.045673  0.062582 -0.077805 -0.015833 -0.049146  0.277557
  1C   1px       -0.008690 -0.023717  0.141932 -0.290478  0.025382  0.138556
  1C   1py        0.230378  0.003351  0.226099  0.203374 -0.023030  0.690759
  2C   1s         0.012096  0.001632 -0.005295 -0.023456  0.000468  0.108286
  2C   2s        -0.041114 -0.007468  0.033363  0.115972  0.001812 -0.752405
  2C   1pz        0.023468 -0.216624  0.029578 -0.002435 -0.791222  0.107738
  2C   1px        0.012499  0.109574  0.023445  0.103274  0.382374  0.112128
  2C   1py       -0.027274  0.052517 -0.090925 -0.183356  0.164656  0.372696
  3C   1s        -0.007566  0.002313 -0.003739  0.013122  0.020391 -0.016327
  3C   2s         0.037457 -0.007282  0.004631 -0.049972 -0.113660  0.075326
  3C   1pz       -0.142297  0.013538  0.153830 -0.021117 -0.001501  0.284940
  3C   1px       -0.104067  0.020898 -0.093403  0.249329  0.135593  0.335667
  3C   1py       -0.006582 -0.039626 -0.161485 -0.048357  0.000434  0.338251
  4O   1s        -0.021573  0.003638  0.010681  0.014297  0.000311  0.058429
  4O   2s         0.127255 -0.020236 -0.059763 -0.084063 -0.005975 -0.409238
  4O   1pz        0.456023 -0.030684 -0.472111  0.078160  0.002739  0.331048
  4O   1px       -0.086276  0.022028  0.393953 -0.417337 -0.038362  0.247792
  4O   1py       -0.168210  0.049042  0.379239  0.010231  0.000330  0.045758
  5O   1s        -0.008482 -0.001722 -0.000463 -0.001602 -0.002045 -0.038913
  5O   2s         0.047034  0.009565  0.004517  0.018559  0.012934  0.265423
  5O   1pz       -0.048280  0.612173 -0.080777 -0.134272  0.314232  0.144552
  5O   1px       -0.169620 -0.335427 -0.147822 -0.247683 -0.166011  0.334357
  5O   1py        0.288960 -0.136551  0.122994  0.057911 -0.088328 -0.130034
  6O   1s        -0.004984  0.001035 -0.001312 -0.000251 -0.000448 -0.003508
  6O   2s         0.026431 -0.006227  0.010183  0.007054  0.001355  0.002450
  6O   1pz       -0.010877 -0.580978  0.011275 -0.131739  0.618778 -0.028919
  6O   1px       -0.259681  0.222216 -0.316078 -0.331090 -0.299654 -0.069419
  6O   1py        0.278146  0.141275  0.289875  0.370294 -0.132093 -0.052906
  7H   1s        -0.015131 -0.004386  0.010944 -0.009707 -0.021962 -0.004628
  8H   1s        -0.054376  0.021384 -0.043806  0.054574  0.008682 -0.163875
  9H   1s         0.011998 -0.017429  0.062333  0.066090  0.043674 -0.018186
 10H   1s        -0.017258  0.056428 -0.126014 -0.028594  0.208660 -0.027583
 11H   1s         0.136549 -0.024445 -0.275698  0.040274  0.006685 -0.051868
 12H   1s        -0.021865  0.044616  0.126656  0.114014  0.037556  0.247221
 13H   1s        -0.037821  0.020962  0.052338  0.055847  0.007928  0.180419
                     30        31        32        33        34        35
                   0.49181   0.52360   0.54576   0.59245   0.62323   0.65928
                   0.00000   0.00000   0.00000   0.00000   0.00000   0.00000
                  --------  --------  --------  --------  --------  --------
  0N   1s         0.096499  0.025025 -0.037003  0.089946  0.011852 -0.013708
  0N   2s        -0.667751 -0.192107  0.236217 -0.671762 -0.041610  0.107115
  0N   1pz       -0.237790  0.280194  0.128820 -0.084338  0.359836 -0.152837
  0N   1px       -0.126147  0.104401 -0.108072 -0.383562 -0.105271 -0.239173
  0N   1py       -0.009218 -0.051747 -0.058322 -0.099676 -0.289520 -0.574377
  1C   1s        -0.095277  0.075030  0.025855 -0.096283 -0.098158 -0.069940
  1C   2s         0.605998 -0.519700 -0.226145  0.659282  0.688593  0.527184
  1C   1pz       -0.448030  0.271651  0.162787 -0.202294  0.529984 -0.093898
  1C   1px       -0.363702 -0.818808 -0.215136 -0.223966  0.029157 -0.068859
  1C   1py        0.479684  0.143877 -0.028683 -0.353085  0.038181 -0.314147
  2C   1s         0.107033 -0.001428  0.066848  0.026196  0.037731 -0.012658
  2C   2s        -0.772270 -0.023201 -0.470175 -0.174551 -0.277777  0.104710
  2C   1pz        0.072684 -0.224941  0.071674 -0.010081 -0.017595 -0.034949
  2C   1px       -0.239517 -0.168494  0.413075 -0.050035  0.186071 -0.118517
  2C   1py        0.400186  0.160088 -0.295019 -0.084491  0.152514  0.042152
  3C   1s         0.026061 -0.101591  0.006587 -0.043635  0.069100 -0.030564
  3C   2s        -0.124439  0.691795 -0.015463  0.292072 -0.448611  0.217072
  3C   1pz       -0.368051  0.298388 -0.190366  0.419342 -0.073036 -0.232406
  3C   1px       -0.111599 -0.767980 -0.355959  0.321300  0.046957  0.276140
  3C   1py       -0.045851  0.188390 -0.057864 -0.038224 -0.414136  0.725310
  4O   1s        -0.042554  0.016279 -0.050869  0.073024 -0.033468 -0.006349
  4O   2s         0.298236 -0.102970  0.368536 -0.532277  0.238602  0.040731
  4O   1pz       -0.198220  0.120833 -0.142410  0.220310 -0.220636  0.299335
  4O   1px       -0.199679  0.230956 -0.149265  0.237865 -0.150034 -0.046576
  4O   1py       -0.057891  0.115238  0.135904 -0.114497 -0.020038  0.258579
  5O   1s        -0.004711  0.032227 -0.107552 -0.036226  0.014782  0.018029
  5O   2s         0.014335 -0.235036  0.779315  0.257813 -0.108414 -0.137757
  5O   1pz        0.056937  0.007146 -0.025547 -0.119175  0.230368 -0.029069
  5O   1px        0.160484 -0.135541  0.214580 -0.063667  0.254897 -0.070265
  5O   1py        0.003843  0.115335 -0.462965 -0.240504  0.227279  0.050458
  6O   1s        -0.025954 -0.004379 -0.031001 -0.011637  0.001287 -0.002856
  6O   2s         0.160952  0.039457  0.204949  0.097280 -0.027429  0.014896
  6O   1pz       -0.089891  0.080593 -0.096236 -0.092912  0.050830  0.033876
  6O   1px        0.035486  0.021985 -0.226549 -0.137705 -0.001557  0.083356
  6O   1py       -0.264117 -0.108163 -0.067417 -0.097666  0.008443 -0.028852
  7H   1s         0.114231  0.169873 -0.805791 -0.456690  0.493896  0.091215
  8H   1s         0.125265  0.392172  0.085800  0.437035  0.448274 -0.015395
  9H   1s         0.441784 -0.010701 -0.259988  0.132978 -0.368666 -0.628253
 10H   1s         0.268613 -0.129599 -0.086779 -0.389171 -0.766124 -0.252113
 11H   1s        -0.254314 -0.000826 -0.022975  0.133276  0.361971 -0.663855
 12H   1s         0.117787  0.134123  0.103410 -0.330687 -0.173455  0.446086
 13H   1s        -0.140198 -0.068650 -0.369443  0.481727 -0.077818 -0.408239
                     36        37        38        39        40        41
                   0.66514   0.69205   0.71613   0.73044   0.77735   0.92811
                   0.00000   0.00000   0.00000   0.00000   0.00000   0.00000
                  --------  --------  --------  --------  --------  --------
  0N   1s        -0.091099  0.013094 -0.006480  0.005070  0.007557  0.012555
  0N   2s         0.677886 -0.101083  0.044112 -0.043214 -0.043835 -0.127489
  0N   1pz       -0.372602  0.495575  0.294580 -0.426664 -0.408163 -0.179031
  0N   1px        0.081731 -0.137902 -0.149349 -0.035620  0.242460 -0.060330
  0N   1py       -0.500508 -0.078733 -0.087275 -0.259845  0.506423 -0.024678
  1C   1s        -0.021501  0.058804 -0.022999  0.006472 -0.048652 -0.019728
  1C   2s         0.185028 -0.423289  0.169439 -0.092392  0.366031  0.195421
  1C   1pz        0.023346 -0.067469 -0.022317 -0.379138  0.737937 -0.183168
  1C   1px       -0.348911  0.125335  0.219133 -0.309152 -0.181596 -0.376654
  1C   1py        0.294441  0.019954  0.204570 -0.362442 -0.365363  0.003285
  2C   1s         0.016183 -0.009870 -0.040278  0.035230 -0.012858 -0.066450
  2C   2s        -0.158679  0.091778  0.317262 -0.241989  0.125833  0.619879
  2C   1pz       -0.162047  0.163524 -0.074899  0.218326 -0.115582  0.507524
  2C   1px       -0.289378  0.335017 -0.438071  0.483062  0.043391  0.662060
  2C   1py        0.256723 -0.056813  0.366389 -0.318709  0.048219  0.919809
  3C   1s        -0.041244 -0.041371  0.139193  0.071517  0.008846 -0.019649
  3C   2s         0.310387  0.305641 -1.011880 -0.510929 -0.037623  0.176865
  3C   1pz       -0.170150 -0.638137  0.091166  0.346724 -0.481162  0.117120
  3C   1px       -0.161644 -0.015141 -0.230584 -0.403695 -0.187010 -0.049279
  3C   1py       -0.426667  0.136433  0.309980  0.293609  0.311847 -0.134524
  4O   1s         0.017961  0.029069 -0.005364  0.019741 -0.001149 -0.006083
  4O   2s        -0.119034 -0.194153  0.020933 -0.160555  0.015777  0.046996
  4O   1pz       -0.182944 -0.136095 -0.206685 -0.086860 -0.116906  0.032167
  4O   1px        0.049550  0.064288  0.013991  0.133820  0.001467 -0.008106
  4O   1py       -0.326294 -0.547787 -0.311283 -0.262600 -0.317490  0.127554
  5O   1s         0.008230 -0.011970  0.012133 -0.016178 -0.001814 -0.023212
  5O   2s        -0.075669  0.104963 -0.103867  0.138846  0.015083  0.217998
  5O   1pz       -0.102858  0.102292 -0.287960  0.260891 -0.022766 -0.012367
  5O   1px       -0.177217  0.183436 -0.392787  0.417755 -0.073387  0.099845
  5O   1py       -0.107722  0.044190 -0.273984  0.242128 -0.064004 -0.265602
  6O   1s        -0.002329  0.026630  0.021663 -0.002292  0.010323  0.105326
  6O   2s         0.029187 -0.193918 -0.153418  0.017943 -0.070928 -0.913735
  6O   1pz        0.006594  0.010519  0.068224 -0.084188  0.054640  0.347541
  6O   1px       -0.005484 -0.073001  0.169884 -0.192189 -0.021302  0.450820
  6O   1py       -0.125507  0.205474  0.023765  0.080854  0.040937  0.643211
  7H   1s        -0.144726  0.122160 -0.419353  0.397434 -0.108675 -0.122473
  8H   1s        -0.626605  0.529793  0.289704 -0.327447 -0.401637 -0.070293
  9H   1s        -0.637797 -0.181930 -0.188869 -0.147199  0.566861  0.041606
 10H   1s        -0.017041  0.290953  0.061062  0.120820 -0.823923 -0.017017
 11H   1s        -0.036989 -0.721196  0.415368  0.444161 -0.365871  0.058573
 12H   1s        -0.457811 -0.042947  0.784792  0.575300  0.296087 -0.138911
 13H   1s         0.472410  0.649261  0.267971  0.343190  0.260800 -0.165980

MULLIKEN ATOMIC CHARGES
-----------------------
   0 N :   -0.527178
   1 C :   -0.059650
   2 C :    0.486748
   3 C :   -0.051886
   4 O :   -0.511009
   5 O :   -0.492913
   6 O :   -0.420401
   7 H :    0.361444
   8 H :    0.224970
   9 H :    0.231476
  10 H :    0.161853
  11 H :    0.123991
  12 H :    0.140271
  13 H :    0.332284
Sum of atomic charges:   -0.0000000

LOEWDIN ATOMIC CHARGES
----------------------
   0 N :   -0.350400
   1 C :   -0.039082
   2 C :    0.357985
   3 C :   -0.000633
   4 O :   -0.379463
   5 O :   -0.348561
   6 O :   -0.335486
   7 H :    0.272413
   8 H :    0.155531
   9 H :    0.160934
  10 H :    0.104293
  11 H :    0.070129
  12 H :    0.085510
  13 H :    0.246832

  Mayer bond orders larger than 0.100000
B(  0-N ,  1-C ) :   1.0019 B(  0-N ,  8-H ) :   0.9299 B(  0-N ,  9-H ) :   0.9275
B(  1-C ,  2-C ) :   0.9211 B(  1-C ,  3-C ) :   0.9668 B(  1-C , 10-H ) :   0.9454
B(  2-C ,  5-O ) :   1.0530 B(  2-C ,  6-O ) :   1.8429 B(  3-C ,  4-O ) :   0.9812
B(  3-C , 11-H ) :   0.9544 B(  3-C , 12-H ) :   0.9567 B(  4-O , 13-H ) :   0.8503
B(  5-O ,  6-O ) :   0.1397 B(  5-O ,  7-H ) :   0.8118

Dispersion correction           -0.052881765
FINAL SINGLE POINT ENERGY      -394.124488869519

DIPOLE MOMENT
-------------
                                X             Y             Z
Electronic contribution:     -1.56247       4.27045       1.58101
Nuclear contribution   :      1.15814      -6.02123      -2.55945
                        -----------------------------------------
Total Dipole Moment    :     -0.40433      -1.75078      -0.97844
                        -----------------------------------------
Magnitude (a.u.)       :      2.04598
Magnitude (Debye)      :      5.20047

Rotational constants in cm-1:     0.119446     0.078378     0.049856
Rotational constants in MHz :  3580.904218  2349.724889  1494.652109

                             ****ORCA TERMINATED NORMALLY****
TOTAL RUN TIME: 0 days 0 hours 0 minutes 34 seconds 875 msec
