                         Program Version 4.1.1  - RELEASE  -
|  1> # ORCA input file
|  2> #
|  3> ! LDA def2-QZVP SP AUTOSTART
|  4> %scf
|  5> MaxIter 500
|  6> SOSCFStart 0.00033
|  7> end
|  8> %method
|  9> Grid 3
| 10> end
| 11>
| 12> * xyz 0 1
| 13>    O        1.73328         0.88445         0.25780
| 14>    N        1.04209         0.28297        -0.29964
| 15>    O        0.13780         0.68753        -1.13533
| 16>    C        1.02832        -1.07240         0.01196
| 17>    C        1.98689        -1.63421         0.13136
| 18>    C        2.09708        -2.96338         0.03729
| 19>    C        0.95748        -3.57186         0.16208
| 20>    C       -0.05821        -3.06229         0.38416
| 21>    C        0.04662        -1.76152         0.37233
| 22>    C       -0.98216        -1.39615         0.41224
| 23>    C       -1.13411        -0.38026         1.21634
| 24>    C       -1.90256         0.41409         0.73937
| 25>    C       -2.87644        -0.04673        -0.00256
| 26>    C       -2.78163        -1.20940        -0.63030
| 27>    C       -1.65873        -1.62650        -0.80424
| 28>    H        2.87835        -1.17868        -0.05392
| 29>    H        2.91978        -3.49385        -0.05711
| 30>    H        0.88879        -4.49941        -0.07940
| 31>    H       -0.95919        -3.63101         0.35213
| 32>    H       -0.25668        -0.02132         1.84923
| 33>    H       -1.69434         1.33217         0.90683
| 34>    H       -3.55575         0.45615        -0.12920
| 35>    H       -3.42920        -1.65079        -1.15480
| 36>    H       -1.33056        -2.34519        -1.55259
| 37> *
| 38>
| 39>                          ****END OF INPUT****

CARTESIAN COORDINATES (ANGSTROEM)
---------------------------------
  O      1.733280    0.884450    0.257800
  N      1.042090    0.282970   -0.299640
  O      0.137800    0.687530   -1.135330
  C      1.028320   -1.072400    0.011960
  C      1.986890   -1.634210    0.131360
  C      2.097080   -2.963380    0.037290
  C      0.957480   -3.571860    0.162080
  C     -0.058210   -3.062290    0.384160
  C      0.046620   -1.761520    0.372330
  C     -0.982160   -1.396150    0.412240
  C     -1.134110   -0.380260    1.216340
  C     -1.902560    0.414090    0.739370
  C     -2.876440   -0.046730   -0.002560
  C     -2.781630   -1.209400   -0.630300
  C     -1.658730   -1.626500   -0.804240
  H      2.878350   -1.178680   -0.053920
  H      2.919780   -3.493850   -0.057110
  H      0.888790   -4.499410   -0.079400
  H     -0.959190   -3.631010    0.352130
  H     -0.256680   -0.021320    1.849230
  H     -1.694340    1.332170    0.906830
  H     -3.555750    0.456150   -0.129200
  H     -3.429200   -1.650790   -1.154800
  H     -1.330560   -2.345190   -1.552590

 Total Charge           Charge          ....    0
 Multiplicity           Mult            ....    1
 Number of Electrons    NEL             ....  104
 Basis Dimension        Dim             .... 1125

ORBITAL ENERGIES
----------------

  NO   OCC          E(Eh)            E(eV)
   0   2.0000     -18.678001      -508.2542
   1   2.0000     -18.630119      -506.9513
   2   2.0000     -14.096581      -383.5875
   3   2.0000      -9.798271      -266.6245
   4   2.0000      -9.768028      -265.8016
   5   2.0000      -9.765929      -265.7444
   6   2.0000      -9.765455      -265.7315
   7   2.0000      -9.762238      -265.6440
   8   2.0000      -9.761231      -265.6166
   9   2.0000      -9.759994      -265.5830
  10   2.0000      -9.758401      -265.5396
  11   2.0000      -9.749440      -265.2958
  12   2.0000      -9.743886      -265.1446
  13   2.0000      -9.742332      -265.1023
  14   2.0000      -9.730605      -264.7832
  15   2.0000      -1.241545       -33.7841
  16   2.0000      -0.980056       -26.6687
  17   2.0000      -0.928443       -25.2642
  18   2.0000      -0.860155       -23.4060
  19   2.0000      -0.804588       -21.8940
  20   2.0000      -0.785101       -21.3637
  21   2.0000      -0.742060       -20.1925
  22   2.0000      -0.694351       -18.8943
  23   2.0000      -0.659329       -17.9412
  24   2.0000      -0.627498       -17.0751
  25   2.0000      -0.619248       -16.8506
  26   2.0000      -0.580503       -15.7963
  27   2.0000      -0.560665       -15.2565
  28   2.0000      -0.550165       -14.9708
  29   2.0000      -0.540286       -14.7019
  30   2.0000      -0.520683       -14.1685
  31   2.0000      -0.500164       -13.6101
  32   2.0000      -0.478280       -13.0147
  33   2.0000      -0.464866       -12.6496
  34   2.0000      -0.459621       -12.5069
  35   2.0000      -0.444650       -12.0995
  36   2.0000      -0.430442       -11.7129
  37   2.0000      -0.409568       -11.1449
  38   2.0000      -0.391879       -10.6636
  39   2.0000      -0.384666       -10.4673
  40   2.0000      -0.379204       -10.3187
  41   2.0000      -0.338600        -9.2138
  42   2.0000      -0.332846        -9.0572
  43   2.0000      -0.331494        -9.0204
  44   2.0000      -0.318530        -8.6676
  45   2.0000      -0.302218        -8.2238
  46   2.0000      -0.292101        -7.9485
  47   2.0000      -0.280960        -7.6453
  48   2.0000      -0.259759        -7.0684
  49   2.0000      -0.249059        -6.7773
  50   2.0000      -0.221318        -6.0224
  51   2.0000      -0.185265        -5.0413
  52   0.0000      -0.118146        -3.2149
  53   0.0000      -0.061513        -1.6738
  54   0.0000      -0.051928        -1.4130
  55   0.0000      -0.031600        -0.8599
  56   0.0000      -0.011584        -0.3152

MULLIKEN ATOMIC CHARGES
-----------------------
   0 O :   -0.113416
   1 N :    0.208122
   2 O :   -0.335985
   3 C :    0.124007
   4 C :   -0.053321
   5 C :   -0.188565
   6 C :   -0.055977
   7 C :   -0.080186
   8 C :    0.288718
   9 C :    0.071688
  10 C :   -0.025565
  11 C :   -0.095143
  12 C :   -0.274965
  13 C :   -0.133872
  14 C :    0.047941
  15 H :    0.024025
  16 H :    0.076768
  17 H :    0.046777
  18 H :    0.057926
  19 H :    0.005048
  20 H :    0.077288
  21 H :    0.193425
  22 H :    0.070471
  23 H :    0.064791
Sum of atomic charges:    0.0000000

LOEWDIN ATOMIC CHARGES
----------------------
   0 O :    0.414656
   1 N :   -0.294472
   2 O :    0.143016
   3 C :   -0.234711
   4 C :    0.042269
   5 C :    0.210349
   6 C :    0.061550
   7 C :    0.132448
   8 C :   -0.258183
   9 C :   -0.213669
  10 C :    0.105952
  11 C :    0.099635
  12 C :    0.250103
  13 C :    0.130975
  14 C :    0.191447
  15 H :   -0.055019
  16 H :   -0.115246
  17 H :   -0.118572
  18 H :    0.017278
  19 H :    0.044091
  20 H :   -0.125459
  21 H :   -0.278831
  22 H :   -0.151561
  23 H :    0.001954

  Mayer bond orders larger than 0.1
B(  0-O ,  1-N ) :   1.7950 B(  0-O ,  2-O ) :   0.2645 B(  1-N ,  2-O ) :   1.5963
B(  1-N ,  3-C ) :   0.8437 B(  3-C ,  4-C ) :   1.4265 B(  3-C ,  8-C ) :   1.1537
B(  4-C ,  5-C ) :   1.2787 B(  4-C , 15-H ) :   0.9484 B(  5-C ,  6-C ) :   1.2604
B(  5-C , 16-H ) :   1.0047 B(  6-C ,  7-C ) :   1.3650 B(  6-C , 17-H ) :   0.9956
B(  7-C ,  8-C ) :   1.0743 B(  7-C , 18-H ) :   0.9801 B(  8-C ,  9-C ) :   0.9657
B(  9-C , 10-C ) :   1.1672 B(  9-C , 14-C ) :   1.1695 B( 10-C , 11-C ) :   1.3587
B( 10-C , 19-H ) :   0.9565 B( 11-C , 12-C ) :   1.3327 B( 11-C , 20-H ) :   0.9808
B( 12-C , 13-C ) :   1.2828 B( 12-C , 21-H ) :   1.0113 B( 13-C , 14-C ) :   1.3527
B( 13-C , 22-H ) :   1.0054 B( 14-C , 23-H ) :   0.9497

FINAL SINGLE POINT ENERGY      -661.577342398027

DIPOLE MOMENT
-------------
                                X             Y             Z
Electronic contribution:      3.36335       4.14398       0.32413
Nuclear contribution   :     -3.22754      -5.31148      -0.20354
                        -----------------------------------------
Total Dipole Moment    :      0.13582      -1.16750       0.12058
                        -----------------------------------------
Magnitude (a.u.)       :      1.18154
Magnitude (Debye)      :      3.00324

Rotational constants in cm-1:     0.039212     0.026225     0.018195
Rotational constants in MHz :  1175.556595   786.204161   545.487251

                             ****ORCA TERMINATED NORMALLY****
TOTAL RUN TIME: 0 days 0 hours 5 minutes 7 seconds 506 msec
